+ 2 /NodeList/0/DeviceList/0/$ns3::PointToPointNetDevice/TxQueue/Enqueue ns3::PppHeader (Point-to-Point Protocol: IP (0x0021)) ns3::Ipv4Header (tos 0x0 DSCP Default ECN Not-ECT ttl 64 id 0 protocol 17 offset (bytes) 0 flags [none] length: 1052 10.1.1.1 > 10.1.2.2) ns3::UdpHeader (length: 1032 49153 > 9) Payload (size=1024)
- 2 /NodeList/0/DeviceList/0/$ns3::PointToPointNetDevice/TxQueue/Dequeue ns3::PppHeader (Point-to-Point Protocol: IP (0x0021)) ns3::Ipv4Header (tos 0x0 DSCP Default ECN Not-ECT ttl 64 id 0 protocol 17 offset (bytes) 0 flags [none] length: 1052 10.1.1.1 > 10.1.2.2) ns3::UdpHeader (length: 1032 49153 > 9) Payload (size=1024)
+ 2 /NodeList/0/DeviceList/0/$ns3::PointToPointNetDevice/TxQueue/Enqueue ns3::PppHeader (Point-to-Point Protocol: IP (0x0021)) ns3::Ipv4Header (tos 0x0 DSCP Default ECN Not-ECT ttl 64 id 1 protocol 17 offset (bytes) 0 flags [none] length: 1052 10.1.1.1 > 10.1.2.2) ns3::UdpHeader (length: 1032 49154 > 10) Payload (size=1024)
- 2.00169 /NodeList/0/DeviceList/0/$ns3::PointToPointNetDevice/TxQueue/Dequeue ns3::PppHeader (Point-to-Point Protocol: IP (0x0021)) ns3::Ipv4Header (tos 0x0 DSCP Default ECN Not-ECT ttl 64 id 1 protocol 17 offset (bytes) 0 flags [none] length: 1052 10.1.1.1 > 10.1.2.2) ns3::UdpHeader (length: 1032 49154 > 10) Payload (size=1024)
r 2.00369 /NodeList/1/DeviceList/0/$ns3::PointToPointNetDevice/MacRx ns3::PppHeader (Point-to-Point Protocol: IP (0x0021)) ns3::Ipv4Header (tos 0x0 DSCP Default ECN Not-ECT ttl 64 id 0 protocol 17 offset (bytes) 0 flags [none] length: 1052 10.1.1.1 > 10.1.2.2) ns3::UdpHeader (length: 1032 49153 > 9) Payload (size=1024)
+ 2.00369 /NodeList/1/DeviceList/1/$ns3::PointToPointNetDevice/TxQueue/Enqueue ns3::PppHeader (Point-to-Point Protocol: IP (0x0021)) ns3::Ipv4Header (tos 0x0 DSCP Default ECN Not-ECT ttl 63 id 0 protocol 17 offset (bytes) 0 flags [none] length: 1052 10.1.1.1 > 10.1.2.2) ns3::UdpHeader (length: 1032 49153 > 9) Payload (size=1024)
- 2.00369 /NodeList/1/DeviceList/1/$ns3::PointToPointNetDevice/TxQueue/Dequeue ns3::PppHeader (Point-to-Point Protocol: IP (0x0021)) ns3::Ipv4Header (tos 0x0 DSCP Default ECN Not-ECT ttl 63 id 0 protocol 17 offset (bytes) 0 flags [none] length: 1052 10.1.1.1 > 10.1.2.2) ns3::UdpHeader (length: 1032 49153 > 9) Payload (size=1024)
r 2.00537 /NodeList/1/DeviceList/0/$ns3::PointToPointNetDevice/MacRx ns3::PppHeader (Point-to-Point Protocol: IP (0x0021)) ns3::Ipv4Header (tos 0x0 DSCP Default ECN Not-ECT ttl 64 id 1 protocol 17 offset (bytes) 0 flags [none] length: 1052 10.1.1.1 > 10.1.2.2) ns3::UdpHeader (length: 1032 49154 > 10) Payload (size=1024)
+ 2.00537 /NodeList/1/DeviceList/1/$ns3::PointToPointNetDevice/TxQueue/Enqueue ns3::PppHeader (Point-to-Point Protocol: IP (0x0021)) ns3::Ipv4Header (tos 0x0 DSCP Default ECN Not-ECT ttl 63 id 1 protocol 17 offset (bytes) 0 flags [none] length: 1052 10.1.1.1 > 10.1.2.2) ns3::UdpHeader (length: 1032 49154 > 10) Payload (size=1024)
- 2.00537 /NodeList/1/DeviceList/1/$ns3::PointToPointNetDevice/TxQueue/Dequeue ns3::PppHeader (Point-to-Point Protocol: IP (0x0021)) ns3::Ipv4Header (tos 0x0 DSCP Default ECN Not-ECT ttl 63 id 1 protocol 17 offset (bytes) 0 flags [none] length: 1052 10.1.1.1 > 10.1.2.2) ns3::UdpHeader (length: 1032 49154 > 10) Payload (size=1024)
r 2.00637 /NodeList/2/DeviceList/0/$ns3::PointToPointNetDevice/MacRx ns3::PppHeader (Point-to-Point Protocol: IP (0x0021)) ns3::Ipv4Header (tos 0x0 DSCP Default ECN Not-ECT ttl 63 id 0 protocol 17 offset (bytes) 0 flags [none] length: 1052 10.1.1.1 > 10.1.2.2) ns3::UdpHeader (length: 1032 49153 > 9) Payload (size=1024)
+ 2.00637 /NodeList/2/DeviceList/0/$ns3::PointToPointNetDevice/TxQueue/Enqueue ns3::PppHeader (Point-to-Point Protocol: IP (0x0021)) ns3::Ipv4Header (tos 0x0 DSCP Default ECN Not-ECT ttl 64 id 0 protocol 17 offset (bytes) 0 flags [none] length: 1052 10.1.2.2 > 10.1.1.1) ns3::UdpHeader (length: 1032 9 > 49153) Payload (size=1024)
- 2.00637 /NodeList/2/DeviceList/0/$ns3::PointToPointNetDevice/TxQueue/Dequeue ns3::PppHeader (Point-to-Point Protocol: IP (0x0021)) ns3::Ipv4Header (tos 0x0 DSCP Default ECN Not-ECT ttl 64 id 0 protocol 17 offset (bytes) 0 flags [none] length: 1052 10.1.2.2 > 10.1.1.1) ns3::UdpHeader (length: 1032 9 > 49153) Payload (size=1024)
r 2.00806 /NodeList/2/DeviceList/0/$ns3::PointToPointNetDevice/MacRx ns3::PppHeader (Point-to-Point Protocol: IP (0x0021)) ns3::Ipv4Header (tos 0x0 DSCP Default ECN Not-ECT ttl 63 id 1 protocol 17 offset (bytes) 0 flags [none] length: 1052 10.1.1.1 > 10.1.2.2) ns3::UdpHeader (length: 1032 49154 > 10) Payload (size=1024)
+ 2.00806 /NodeList/2/DeviceList/0/$ns3::PointToPointNetDevice/TxQueue/Enqueue ns3::PppHeader (Point-to-Point Protocol: IP (0x0021)) ns3::Ipv4Header (tos 0x0 DSCP Default ECN Not-ECT ttl 64 id 1 protocol 17 offset (bytes) 0 flags [none] length: 1052 10.1.2.2 > 10.1.1.1) ns3::UdpHeader (length: 1032 10 > 49154) Payload (size=1024)
- 2.00806 /NodeList/2/DeviceList/0/$ns3::PointToPointNetDevice/TxQueue/Dequeue ns3::PppHeader (Point-to-Point Protocol: IP (0x0021)) ns3::Ipv4Header (tos 0x0 DSCP Default ECN Not-ECT ttl 64 id 1 protocol 17 offset (bytes) 0 flags [none] length: 1052 10.1.2.2 > 10.1.1.1) ns3::UdpHeader (length: 1032 10 > 49154) Payload (size=1024)
r 2.00906 /NodeList/1/DeviceList/1/$ns3::PointToPointNetDevice/MacRx ns3::PppHeader (Point-to-Point Protocol: IP (0x0021)) ns3::Ipv4Header (tos 0x0 DSCP Default ECN Not-ECT ttl 64 id 0 protocol 17 offset (bytes) 0 flags [none] length: 1052 10.1.2.2 > 10.1.1.1) ns3::UdpHeader (length: 1032 9 > 49153) Payload (size=1024)
+ 2.00906 /NodeList/1/DeviceList/0/$ns3::PointToPointNetDevice/TxQueue/Enqueue ns3::PppHeader (Point-to-Point Protocol: IP (0x0021)) ns3::Ipv4Header (tos 0x0 DSCP Default ECN Not-ECT ttl 63 id 0 protocol 17 offset (bytes) 0 flags [none] length: 1052 10.1.2.2 > 10.1.1.1) ns3::UdpHeader (length: 1032 9 > 49153) Payload (size=1024)
- 2.00906 /NodeList/1/DeviceList/0/$ns3::PointToPointNetDevice/TxQueue/Dequeue ns3::PppHeader (Point-to-Point Protocol: IP (0x0021)) ns3::Ipv4Header (tos 0x0 DSCP Default ECN Not-ECT ttl 63 id 0 protocol 17 offset (bytes) 0 flags [none] length: 1052 10.1.2.2 > 10.1.1.1) ns3::UdpHeader (length: 1032 9 > 49153) Payload (size=1024)
r 2.01075 /NodeList/1/DeviceList/1/$ns3::PointToPointNetDevice/MacRx ns3::PppHeader (Point-to-Point Protocol: IP (0x0021)) ns3::Ipv4Header (tos 0x0 DSCP Default ECN Not-ECT ttl 64 id 1 protocol 17 offset (bytes) 0 flags [none] length: 1052 10.1.2.2 > 10.1.1.1) ns3::UdpHeader (length: 1032 10 > 49154) Payload (size=1024)
+ 2.01075 /NodeList/1/DeviceList/0/$ns3::PointToPointNetDevice/TxQueue/Enqueue ns3::PppHeader (Point-to-Point Protocol: IP (0x0021)) ns3::Ipv4Header (tos 0x0 DSCP Default ECN Not-ECT ttl 63 id 1 protocol 17 offset (bytes) 0 flags [none] length: 1052 10.1.2.2 > 10.1.1.1) ns3::UdpHeader (length: 1032 10 > 49154) Payload (size=1024)
- 2.01075 /NodeList/1/DeviceList/0/$ns3::PointToPointNetDevice/TxQueue/Dequeue ns3::PppHeader (Point-to-Point Protocol: IP (0x0021)) ns3::Ipv4Header (tos 0x0 DSCP Default ECN Not-ECT ttl 63 id 1 protocol 17 offset (bytes) 0 flags [none] length: 1052 10.1.2.2 > 10.1.1.1) ns3::UdpHeader (length: 1032 10 > 49154) Payload (size=1024)
r 2.01275 /NodeList/0/DeviceList/0/$ns3::PointToPointNetDevice/MacRx ns3::PppHeader (Point-to-Point Protocol: IP (0x0021)) ns3::Ipv4Header (tos 0x0 DSCP Default ECN Not-ECT ttl 63 id 0 protocol 17 offset (bytes) 0 flags [none] length: 1052 10.1.2.2 > 10.1.1.1) ns3::UdpHeader (length: 1032 9 > 49153) Payload (size=1024)
r 2.01443 /NodeList/0/DeviceList/0/$ns3::PointToPointNetDevice/MacRx ns3::PppHeader (Point-to-Point Protocol: IP (0x0021)) ns3::Ipv4Header (tos 0x0 DSCP Default ECN Not-ECT ttl 63 id 1 protocol 17 offset (bytes) 0 flags [none] length: 1052 10.1.2.2 > 10.1.1.1) ns3::UdpHeader (length: 1032 10 > 49154) Payload (size=1024)
+ 3 /NodeList/0/DeviceList/0/$ns3::PointToPointNetDevice/TxQueue/Enqueue ns3::PppHeader (Point-to-Point Protocol: IP (0x0021)) ns3::Ipv4Header (tos 0x0 DSCP Default ECN Not-ECT ttl 64 id 2 protocol 17 offset (bytes) 0 flags [none] length: 1052 10.1.1.1 > 10.1.2.2) ns3::UdpHeader (length: 1032 49153 > 9) Payload (size=1024)
- 3 /NodeList/0/DeviceList/0/$ns3::PointToPointNetDevice/TxQueue/Dequeue ns3::PppHeader (Point-to-Point Protocol: IP (0x0021)) ns3::Ipv4Header (tos 0x0 DSCP Default ECN Not-ECT ttl 64 id 2 protocol 17 offset (bytes) 0 flags [none] length: 1052 10.1.1.1 > 10.1.2.2) ns3::UdpHeader (length: 1032 49153 > 9) Payload (size=1024)
+ 3 /NodeList/0/DeviceList/0/$ns3::PointToPointNetDevice/TxQueue/Enqueue ns3::PppHeader (Point-to-Point Protocol: IP (0x0021)) ns3::Ipv4Header (tos 0x0 DSCP Default ECN Not-ECT ttl 64 id 3 protocol 17 offset (bytes) 0 flags [none] length: 1052 10.1.1.1 > 10.1.2.2) ns3::UdpHeader (length: 1032 49154 > 10) Payload (size=1024)
- 3.00169 /NodeList/0/DeviceList/0/$ns3::PointToPointNetDevice/TxQueue/Dequeue ns3::PppHeader (Point-to-Point Protocol: IP (0x0021)) ns3::Ipv4Header (tos 0x0 DSCP Default ECN Not-ECT ttl 64 id 3 protocol 17 offset (bytes) 0 flags [none] length: 1052 10.1.1.1 > 10.1.2.2) ns3::UdpHeader (length: 1032 49154 > 10) Payload (size=1024)
r 3.00369 /NodeList/1/DeviceList/0/$ns3::PointToPointNetDevice/MacRx ns3::PppHeader (Point-to-Point Protocol: IP (0x0021)) ns3::Ipv4Header (tos 0x0 DSCP Default ECN Not-ECT ttl 64 id 2 protocol 17 offset (bytes) 0 flags [none] length: 1052 10.1.1.1 > 10.1.2.2) ns3::UdpHeader (length: 1032 49153 > 9) Payload (size=1024)
+ 3.00369 /NodeList/1/DeviceList/1/$ns3::PointToPointNetDevice/TxQueue/Enqueue ns3::PppHeader (Point-to-Point Protocol: IP (0x0021)) ns3::Ipv4Header (tos 0x0 DSCP Default ECN Not-ECT ttl 63 id 2 protocol 17 offset (bytes) 0 flags [none] length: 1052 10.1.1.1 > 10.1.2.2) ns3::UdpHeader (length: 1032 49153 > 9) Payload (size=1024)
- 3.00369 /NodeList/1/DeviceList/1/$ns3::PointToPointNetDevice/TxQueue/Dequeue ns3::PppHeader (Point-to-Point Protocol: IP (0x0021)) ns3::Ipv4Header (tos 0x0 DSCP Default ECN Not-ECT ttl 63 id 2 protocol 17 offset (bytes) 0 flags [none] length: 1052 10.1.1.1 > 10.1.2.2) ns3::UdpHeader (length: 1032 49153 > 9) Payload (size=1024)
r 3.00537 /NodeList/1/DeviceList/0/$ns3::PointToPointNetDevice/MacRx ns3::PppHeader (Point-to-Point Protocol: IP (0x0021)) ns3::Ipv4Header (tos 0x0 DSCP Default ECN Not-ECT ttl 64 id 3 protocol 17 offset (bytes) 0 flags [none] length: 1052 10.1.1.1 > 10.1.2.2) ns3::UdpHeader (length: 1032 49154 > 10) Payload (size=1024)
+ 3.00537 /NodeList/1/DeviceList/1/$ns3::PointToPointNetDevice/TxQueue/Enqueue ns3::PppHeader (Point-to-Point Protocol: IP (0x0021)) ns3::Ipv4Header (tos 0x0 DSCP Default ECN Not-ECT ttl 63 id 3 protocol 17 offset (bytes) 0 flags [none] length: 1052 10.1.1.1 > 10.1.2.2) ns3::UdpHeader (length: 1032 49154 > 10) Payload (size=1024)
- 3.00537 /NodeList/1/DeviceList/1/$ns3::PointToPointNetDevice/TxQueue/Dequeue ns3::PppHeader (Point-to-Point Protocol: IP (0x0021)) ns3::Ipv4Header (tos 0x0 DSCP Default ECN Not-ECT ttl 63 id 3 protocol 17 offset (bytes) 0 flags [none] length: 1052 10.1.1.1 > 10.1.2.2) ns3::UdpHeader (length: 1032 49154 > 10) Payload (size=1024)
r 3.00637 /NodeList/2/DeviceList/0/$ns3::PointToPointNetDevice/MacRx ns3::PppHeader (Point-to-Point Protocol: IP (0x0021)) ns3::Ipv4Header (tos 0x0 DSCP Default ECN Not-ECT ttl 63 id 2 protocol 17 offset (bytes) 0 flags [none] length: 1052 10.1.1.1 > 10.1.2.2) ns3::UdpHeader (length: 1032 49153 > 9) Payload (size=1024)
+ 3.00637 /NodeList/2/DeviceList/0/$ns3::PointToPointNetDevice/TxQueue/Enqueue ns3::PppHeader (Point-to-Point Protocol: IP (0x0021)) ns3::Ipv4Header (tos 0x0 DSCP Default ECN Not-ECT ttl 64 id 2 protocol 17 offset (bytes) 0 flags [none] length: 1052 10.1.2.2 > 10.1.1.1) ns3::UdpHeader (length: 1032 9 > 49153) Payload (size=1024)
- 3.00637 /NodeList/2/DeviceList/0/$ns3::PointToPointNetDevice/TxQueue/Dequeue ns3::PppHeader (Point-to-Point Protocol: IP (0x0021)) ns3::Ipv4Header (tos 0x0 DSCP Default ECN Not-ECT ttl 64 id 2 protocol 17 offset (bytes) 0 flags [none] length: 1052 10.1.2.2 > 10.1.1.1) ns3::UdpHeader (length: 1032 9 > 49153) Payload (size=1024)
r 3.00806 /NodeList/2/DeviceList/0/$ns3::PointToPointNetDevice/MacRx ns3::PppHeader (Point-to-Point Protocol: IP (0x0021)) ns3::Ipv4Header (tos 0x0 DSCP Default ECN Not-ECT ttl 63 id 3 protocol 17 offset (bytes) 0 flags [none] length: 1052 10.1.1.1 > 10.1.2.2) ns3::UdpHeader (length: 1032 49154 > 10) Payload (size=1024)
+ 3.00806 /NodeList/2/DeviceList/0/$ns3::PointToPointNetDevice/TxQueue/Enqueue ns3::PppHeader (Point-to-Point Protocol: IP (0x0021)) ns3::Ipv4Header (tos 0x0 DSCP Default ECN Not-ECT ttl 64 id 3 protocol 17 offset (bytes) 0 flags [none] length: 1052 10.1.2.2 > 10.1.1.1) ns3::UdpHeader (length: 1032 10 > 49154) Payload (size=1024)
- 3.00806 /NodeList/2/DeviceList/0/$ns3::PointToPointNetDevice/TxQueue/Dequeue ns3::PppHeader (Point-to-Point Protocol: IP (0x0021)) ns3::Ipv4Header (tos 0x0 DSCP Default ECN Not-ECT ttl 64 id 3 protocol 17 offset (bytes) 0 flags [none] length: 1052 10.1.2.2 > 10.1.1.1) ns3::UdpHeader (length: 1032 10 > 49154) Payload (size=1024)
r 3.00906 /NodeList/1/DeviceList/1/$ns3::PointToPointNetDevice/MacRx ns3::PppHeader (Point-to-Point Protocol: IP (0x0021)) ns3::Ipv4Header (tos 0x0 DSCP Default ECN Not-ECT ttl 64 id 2 protocol 17 offset (bytes) 0 flags [none] length: 1052 10.1.2.2 > 10.1.1.1) ns3::UdpHeader (length: 1032 9 > 49153) Payload (size=1024)
+ 3.00906 /NodeList/1/DeviceList/0/$ns3::PointToPointNetDevice/TxQueue/Enqueue ns3::PppHeader (Point-to-Point Protocol: IP (0x0021)) ns3::Ipv4Header (tos 0x0 DSCP Default ECN Not-ECT ttl 63 id 2 protocol 17 offset (bytes) 0 flags [none] length: 1052 10.1.2.2 > 10.1.1.1) ns3::UdpHeader (length: 1032 9 > 49153) Payload (size=1024)
- 3.00906 /NodeList/1/DeviceList/0/$ns3::PointToPointNetDevice/TxQueue/Dequeue ns3::PppHeader (Point-to-Point Protocol: IP (0x0021)) ns3::Ipv4Header (tos 0x0 DSCP Default ECN Not-ECT ttl 63 id 2 protocol 17 offset (bytes) 0 flags [none] length: 1052 10.1.2.2 > 10.1.1.1) ns3::UdpHeader (length: 1032 9 > 49153) Payload (size=1024)
r 3.01075 /NodeList/1/DeviceList/1/$ns3::PointToPointNetDevice/MacRx ns3::PppHeader (Point-to-Point Protocol: IP (0x0021)) ns3::Ipv4Header (tos 0x0 DSCP Default ECN Not-ECT ttl 64 id 3 protocol 17 offset (bytes) 0 flags [none] length: 1052 10.1.2.2 > 10.1.1.1) ns3::UdpHeader (length: 1032 10 > 49154) Payload (size=1024)
+ 3.01075 /NodeList/1/DeviceList/0/$ns3::PointToPointNetDevice/TxQueue/Enqueue ns3::PppHeader (Point-to-Point Protocol: IP (0x0021)) ns3::Ipv4Header (tos 0x0 DSCP Default ECN Not-ECT ttl 63 id 3 protocol 17 offset (bytes) 0 flags [none] length: 1052 10.1.2.2 > 10.1.1.1) ns3::UdpHeader (length: 1032 10 > 49154) Payload (size=1024)
- 3.01075 /NodeList/1/DeviceList/0/$ns3::PointToPointNetDevice/TxQueue/Dequeue ns3::PppHeader (Point-to-Point Protocol: IP (0x0021)) ns3::Ipv4Header (tos 0x0 DSCP Default ECN Not-ECT ttl 63 id 3 protocol 17 offset (bytes) 0 flags [none] length: 1052 10.1.2.2 > 10.1.1.1) ns3::UdpHeader (length: 1032 10 > 49154) Payload (size=1024)
r 3.01275 /NodeList/0/DeviceList/0/$ns3::PointToPointNetDevice/MacRx ns3::PppHeader (Point-to-Point Protocol: IP (0x0021)) ns3::Ipv4Header (tos 0x0 DSCP Default ECN Not-ECT ttl 63 id 2 protocol 17 offset (bytes) 0 flags [none] length: 1052 10.1.2.2 > 10.1.1.1) ns3::UdpHeader (length: 1032 9 > 49153) Payload (size=1024)
r 3.01443 /NodeList/0/DeviceList/0/$ns3::PointToPointNetDevice/MacRx ns3::PppHeader (Point-to-Point Protocol: IP (0x0021)) ns3::Ipv4Header (tos 0x0 DSCP Default ECN Not-ECT ttl 63 id 3 protocol 17 offset (bytes) 0 flags [none] length: 1052 10.1.2.2 > 10.1.1.1) ns3::UdpHeader (length: 1032 10 > 49154) Payload (size=1024)
+ 4 /NodeList/0/DeviceList/0/$ns3::PointToPointNetDevice/TxQueue/Enqueue ns3::PppHeader (Point-to-Point Protocol: IP (0x0021)) ns3::Ipv4Header (tos 0x0 DSCP Default ECN Not-ECT ttl 64 id 4 protocol 17 offset (bytes) 0 flags [none] length: 1052 10.1.1.1 > 10.1.2.2) ns3::UdpHeader (length: 1032 49153 > 9) Payload (size=1024)
- 4 /NodeList/0/DeviceList/0/$ns3::PointToPointNetDevice/TxQueue/Dequeue ns3::PppHeader (Point-to-Point Protocol: IP (0x0021)) ns3::Ipv4Header (tos 0x0 DSCP Default ECN Not-ECT ttl 64 id 4 protocol 17 offset (bytes) 0 flags [none] length: 1052 10.1.1.1 > 10.1.2.2) ns3::UdpHeader (length: 1032 49153 > 9) Payload (size=1024)
+ 4 /NodeList/0/DeviceList/0/$ns3::PointToPointNetDevice/TxQueue/Enqueue ns3::PppHeader (Point-to-Point Protocol: IP (0x0021)) ns3::Ipv4Header (tos 0x0 DSCP Default ECN Not-ECT ttl 64 id 5 protocol 17 offset (bytes) 0 flags [none] length: 1052 10.1.1.1 > 10.1.2.2) ns3::UdpHeader (length: 1032 49154 > 10) Payload (size=1024)
- 4.00169 /NodeList/0/DeviceList/0/$ns3::PointToPointNetDevice/TxQueue/Dequeue ns3::PppHeader (Point-to-Point Protocol: IP (0x0021)) ns3::Ipv4Header (tos 0x0 DSCP Default ECN Not-ECT ttl 64 id 5 protocol 17 offset (bytes) 0 flags [none] length: 1052 10.1.1.1 > 10.1.2.2) ns3::UdpHeader (length: 1032 49154 > 10) Payload (size=1024)
r 4.00369 /NodeList/1/DeviceList/0/$ns3::PointToPointNetDevice/MacRx ns3::PppHeader (Point-to-Point Protocol: IP (0x0021)) ns3::Ipv4Header (tos 0x0 DSCP Default ECN Not-ECT ttl 64 id 4 protocol 17 offset (bytes) 0 flags [none] length: 1052 10.1.1.1 > 10.1.2.2) ns3::UdpHeader (length: 1032 49153 > 9) Payload (size=1024)
+ 4.00369 /NodeList/1/DeviceList/1/$ns3::PointToPointNetDevice/TxQueue/Enqueue ns3::PppHeader (Point-to-Point Protocol: IP (0x0021)) ns3::Ipv4Header (tos 0x0 DSCP Default ECN Not-ECT ttl 63 id 4 protocol 17 offset (bytes) 0 flags [none] length: 1052 10.1.1.1 > 10.1.2.2) ns3::UdpHeader (length: 1032 49153 > 9) Payload (size=1024)
- 4.00369 /NodeList/1/DeviceList/1/$ns3::PointToPointNetDevice/TxQueue/Dequeue ns3::PppHeader (Point-to-Point Protocol: IP (0x0021)) ns3::Ipv4Header (tos 0x0 DSCP Default ECN Not-ECT ttl 63 id 4 protocol 17 offset (bytes) 0 flags [none] length: 1052 10.1.1.1 > 10.1.2.2) ns3::UdpHeader (length: 1032 49153 > 9) Payload (size=1024)
r 4.00537 /NodeList/1/DeviceList/0/$ns3::PointToPointNetDevice/MacRx ns3::PppHeader (Point-to-Point Protocol: IP (0x0021)) ns3::Ipv4Header (tos 0x0 DSCP Default ECN Not-ECT ttl 64 id 5 protocol 17 offset (bytes) 0 flags [none] length: 1052 10.1.1.1 > 10.1.2.2) ns3::UdpHeader (length: 1032 49154 > 10) Payload (size=1024)
+ 4.00537 /NodeList/1/DeviceList/1/$ns3::PointToPointNetDevice/TxQueue/Enqueue ns3::PppHeader (Point-to-Point Protocol: IP (0x0021)) ns3::Ipv4Header (tos 0x0 DSCP Default ECN Not-ECT ttl 63 id 5 protocol 17 offset (bytes) 0 flags [none] length: 1052 10.1.1.1 > 10.1.2.2) ns3::UdpHeader (length: 1032 49154 > 10) Payload (size=1024)
- 4.00537 /NodeList/1/DeviceList/1/$ns3::PointToPointNetDevice/TxQueue/Dequeue ns3::PppHeader (Point-to-Point Protocol: IP (0x0021)) ns3::Ipv4Header (tos 0x0 DSCP Default ECN Not-ECT ttl 63 id 5 protocol 17 offset (bytes) 0 flags [none] length: 1052 10.1.1.1 > 10.1.2.2) ns3::UdpHeader (length: 1032 49154 > 10) Payload (size=1024)
r 4.00637 /NodeList/2/DeviceList/0/$ns3::PointToPointNetDevice/MacRx ns3::PppHeader (Point-to-Point Protocol: IP (0x0021)) ns3::Ipv4Header (tos 0x0 DSCP Default ECN Not-ECT ttl 63 id 4 protocol 17 offset (bytes) 0 flags [none] length: 1052 10.1.1.1 > 10.1.2.2) ns3::UdpHeader (length: 1032 49153 > 9) Payload (size=1024)
+ 4.00637 /NodeList/2/DeviceList/0/$ns3::PointToPointNetDevice/TxQueue/Enqueue ns3::PppHeader (Point-to-Point Protocol: IP (0x0021)) ns3::Ipv4Header (tos 0x0 DSCP Default ECN Not-ECT ttl 64 id 4 protocol 17 offset (bytes) 0 flags [none] length: 1052 10.1.2.2 > 10.1.1.1) ns3::UdpHeader (length: 1032 9 > 49153) Payload (size=1024)
- 4.00637 /NodeList/2/DeviceList/0/$ns3::PointToPointNetDevice/TxQueue/Dequeue ns3::PppHeader (Point-to-Point Protocol: IP (0x0021)) ns3::Ipv4Header (tos 0x0 DSCP Default ECN Not-ECT ttl 64 id 4 protocol 17 offset (bytes) 0 flags [none] length: 1052 10.1.2.2 > 10.1.1.1) ns3::UdpHeader (length: 1032 9 > 49153) Payload (size=1024)
r 4.00806 /NodeList/2/DeviceList/0/$ns3::PointToPointNetDevice/MacRx ns3::PppHeader (Point-to-Point Protocol: IP (0x0021)) ns3::Ipv4Header (tos 0x0 DSCP Default ECN Not-ECT ttl 63 id 5 protocol 17 offset (bytes) 0 flags [none] length: 1052 10.1.1.1 > 10.1.2.2) ns3::UdpHeader (length: 1032 49154 > 10) Payload (size=1024)
+ 4.00806 /NodeList/2/DeviceList/0/$ns3::PointToPointNetDevice/TxQueue/Enqueue ns3::PppHeader (Point-to-Point Protocol: IP (0x0021)) ns3::Ipv4Header (tos 0x0 DSCP Default ECN Not-ECT ttl 64 id 5 protocol 17 offset (bytes) 0 flags [none] length: 1052 10.1.2.2 > 10.1.1.1) ns3::UdpHeader (length: 1032 10 > 49154) Payload (size=1024)
- 4.00806 /NodeList/2/DeviceList/0/$ns3::PointToPointNetDevice/TxQueue/Dequeue ns3::PppHeader (Point-to-Point Protocol: IP (0x0021)) ns3::Ipv4Header (tos 0x0 DSCP Default ECN Not-ECT ttl 64 id 5 protocol 17 offset (bytes) 0 flags [none] length: 1052 10.1.2.2 > 10.1.1.1) ns3::UdpHeader (length: 1032 10 > 49154) Payload (size=1024)
r 4.00906 /NodeList/1/DeviceList/1/$ns3::PointToPointNetDevice/MacRx ns3::PppHeader (Point-to-Point Protocol: IP (0x0021)) ns3::Ipv4Header (tos 0x0 DSCP Default ECN Not-ECT ttl 64 id 4 protocol 17 offset (bytes) 0 flags [none] length: 1052 10.1.2.2 > 10.1.1.1) ns3::UdpHeader (length: 1032 9 > 49153) Payload (size=1024)
+ 4.00906 /NodeList/1/DeviceList/0/$ns3::PointToPointNetDevice/TxQueue/Enqueue ns3::PppHeader (Point-to-Point Protocol: IP (0x0021)) ns3::Ipv4Header (tos 0x0 DSCP Default ECN Not-ECT ttl 63 id 4 protocol 17 offset (bytes) 0 flags [none] length: 1052 10.1.2.2 > 10.1.1.1) ns3::UdpHeader (length: 1032 9 > 49153) Payload (size=1024)
- 4.00906 /NodeList/1/DeviceList/0/$ns3::PointToPointNetDevice/TxQueue/Dequeue ns3::PppHeader (Point-to-Point Protocol: IP (0x0021)) ns3::Ipv4Header (tos 0x0 DSCP Default ECN Not-ECT ttl 63 id 4 protocol 17 offset (bytes) 0 flags [none] length: 1052 10.1.2.2 > 10.1.1.1) ns3::UdpHeader (length: 1032 9 > 49153) Payload (size=1024)
r 4.01075 /NodeList/1/DeviceList/1/$ns3::PointToPointNetDevice/MacRx ns3::PppHeader (Point-to-Point Protocol: IP (0x0021)) ns3::Ipv4Header (tos 0x0 DSCP Default ECN Not-ECT ttl 64 id 5 protocol 17 offset (bytes) 0 flags [none] length: 1052 10.1.2.2 > 10.1.1.1) ns3::UdpHeader (length: 1032 10 > 49154) Payload (size=1024)
+ 4.01075 /NodeList/1/DeviceList/0/$ns3::PointToPointNetDevice/TxQueue/Enqueue ns3::PppHeader (Point-to-Point Protocol: IP (0x0021)) ns3::Ipv4Header (tos 0x0 DSCP Default ECN Not-ECT ttl 63 id 5 protocol 17 offset (bytes) 0 flags [none] length: 1052 10.1.2.2 > 10.1.1.1) ns3::UdpHeader (length: 1032 10 > 49154) Payload (size=1024)
- 4.01075 /NodeList/1/DeviceList/0/$ns3::PointToPointNetDevice/TxQueue/Dequeue ns3::PppHeader (Point-to-Point Protocol: IP (0x0021)) ns3::Ipv4Header (tos 0x0 DSCP Default ECN Not-ECT ttl 63 id 5 protocol 17 offset (bytes) 0 flags [none] length: 1052 10.1.2.2 > 10.1.1.1) ns3::UdpHeader (length: 1032 10 > 49154) Payload (size=1024)
r 4.01275 /NodeList/0/DeviceList/0/$ns3::PointToPointNetDevice/MacRx ns3::PppHeader (Point-to-Point Protocol: IP (0x0021)) ns3::Ipv4Header (tos 0x0 DSCP Default ECN Not-ECT ttl 63 id 4 protocol 17 offset (bytes) 0 flags [none] length: 1052 10.1.2.2 > 10.1.1.1) ns3::UdpHeader (length: 1032 9 > 49153) Payload (size=1024)
r 4.01443 /NodeList/0/DeviceList/0/$ns3::PointToPointNetDevice/MacRx ns3::PppHeader (Point-to-Point Protocol: IP (0x0021)) ns3::Ipv4Header (tos 0x0 DSCP Default ECN Not-ECT ttl 63 id 5 protocol 17 offset (bytes) 0 flags [none] length: 1052 10.1.2.2 > 10.1.1.1) ns3::UdpHeader (length: 1032 10 > 49154) Payload (size=1024)
+ 5 /NodeList/0/DeviceList/0/$ns3::PointToPointNetDevice/TxQueue/Enqueue ns3::PppHeader (Point-to-Point Protocol: IP (0x0021)) ns3::Ipv4Header (tos 0x0 DSCP Default ECN Not-ECT ttl 64 id 6 protocol 17 offset (bytes) 0 flags [none] length: 1052 10.1.1.1 > 10.1.2.2) ns3::UdpHeader (length: 1032 49153 > 9) Payload (size=1024)
- 5 /NodeList/0/DeviceList/0/$ns3::PointToPointNetDevice/TxQueue/Dequeue ns3::PppHeader (Point-to-Point Protocol: IP (0x0021)) ns3::Ipv4Header (tos 0x0 DSCP Default ECN Not-ECT ttl 64 id 6 protocol 17 offset (bytes) 0 flags [none] length: 1052 10.1.1.1 > 10.1.2.2) ns3::UdpHeader (length: 1032 49153 > 9) Payload (size=1024)
+ 5 /NodeList/0/DeviceList/0/$ns3::PointToPointNetDevice/TxQueue/Enqueue ns3::PppHeader (Point-to-Point Protocol: IP (0x0021)) ns3::Ipv4Header (tos 0x0 DSCP Default ECN Not-ECT ttl 64 id 7 protocol 17 offset (bytes) 0 flags [none] length: 1052 10.1.1.1 > 10.1.2.2) ns3::UdpHeader (length: 1032 49154 > 10) Payload (size=1024)
- 5.00169 /NodeList/0/DeviceList/0/$ns3::PointToPointNetDevice/TxQueue/Dequeue ns3::PppHeader (Point-to-Point Protocol: IP (0x0021)) ns3::Ipv4Header (tos 0x0 DSCP Default ECN Not-ECT ttl 64 id 7 protocol 17 offset (bytes) 0 flags [none] length: 1052 10.1.1.1 > 10.1.2.2) ns3::UdpHeader (length: 1032 49154 > 10) Payload (size=1024)
r 5.00369 /NodeList/1/DeviceList/0/$ns3::PointToPointNetDevice/MacRx ns3::PppHeader (Point-to-Point Protocol: IP (0x0021)) ns3::Ipv4Header (tos 0x0 DSCP Default ECN Not-ECT ttl 64 id 6 protocol 17 offset (bytes) 0 flags [none] length: 1052 10.1.1.1 > 10.1.2.2) ns3::UdpHeader (length: 1032 49153 > 9) Payload (size=1024)
+ 5.00369 /NodeList/1/DeviceList/1/$ns3::PointToPointNetDevice/TxQueue/Enqueue ns3::PppHeader (Point-to-Point Protocol: IP (0x0021)) ns3::Ipv4Header (tos 0x0 DSCP Default ECN Not-ECT ttl 63 id 6 protocol 17 offset (bytes) 0 flags [none] length: 1052 10.1.1.1 > 10.1.2.2) ns3::UdpHeader (length: 1032 49153 > 9) Payload (size=1024)
- 5.00369 /NodeList/1/DeviceList/1/$ns3::PointToPointNetDevice/TxQueue/Dequeue ns3::PppHeader (Point-to-Point Protocol: IP (0x0021)) ns3::Ipv4Header (tos 0x0 DSCP Default ECN Not-ECT ttl 63 id 6 protocol 17 offset (bytes) 0 flags [none] length: 1052 10.1.1.1 > 10.1.2.2) ns3::UdpHeader (length: 1032 49153 > 9) Payload (size=1024)
r 5.00537 /NodeList/1/DeviceList/0/$ns3::PointToPointNetDevice/MacRx ns3::PppHeader (Point-to-Point Protocol: IP (0x0021)) ns3::Ipv4Header (tos 0x0 DSCP Default ECN Not-ECT ttl 64 id 7 protocol 17 offset (bytes) 0 flags [none] length: 1052 10.1.1.1 > 10.1.2.2) ns3::UdpHeader (length: 1032 49154 > 10) Payload (size=1024)
+ 5.00537 /NodeList/1/DeviceList/1/$ns3::PointToPointNetDevice/TxQueue/Enqueue ns3::PppHeader (Point-to-Point Protocol: IP (0x0021)) ns3::Ipv4Header (tos 0x0 DSCP Default ECN Not-ECT ttl 63 id 7 protocol 17 offset (bytes) 0 flags [none] length: 1052 10.1.1.1 > 10.1.2.2) ns3::UdpHeader (length: 1032 49154 > 10) Payload (size=1024)
- 5.00537 /NodeList/1/DeviceList/1/$ns3::PointToPointNetDevice/TxQueue/Dequeue ns3::PppHeader (Point-to-Point Protocol: IP (0x0021)) ns3::Ipv4Header (tos 0x0 DSCP Default ECN Not-ECT ttl 63 id 7 protocol 17 offset (bytes) 0 flags [none] length: 1052 10.1.1.1 > 10.1.2.2) ns3::UdpHeader (length: 1032 49154 > 10) Payload (size=1024)
r 5.00637 /NodeList/2/DeviceList/0/$ns3::PointToPointNetDevice/MacRx ns3::PppHeader (Point-to-Point Protocol: IP (0x0021)) ns3::Ipv4Header (tos 0x0 DSCP Default ECN Not-ECT ttl 63 id 6 protocol 17 offset (bytes) 0 flags [none] length: 1052 10.1.1.1 > 10.1.2.2) ns3::UdpHeader (length: 1032 49153 > 9) Payload (size=1024)
+ 5.00637 /NodeList/2/DeviceList/0/$ns3::PointToPointNetDevice/TxQueue/Enqueue ns3::PppHeader (Point-to-Point Protocol: IP (0x0021)) ns3::Ipv4Header (tos 0x0 DSCP Default ECN Not-ECT ttl 64 id 6 protocol 17 offset (bytes) 0 flags [none] length: 1052 10.1.2.2 > 10.1.1.1) ns3::UdpHeader (length: 1032 9 > 49153) Payload (size=1024)
- 5.00637 /NodeList/2/DeviceList/0/$ns3::PointToPointNetDevice/TxQueue/Dequeue ns3::PppHeader (Point-to-Point Protocol: IP (0x0021)) ns3::Ipv4Header (tos 0x0 DSCP Default ECN Not-ECT ttl 64 id 6 protocol 17 offset (bytes) 0 flags [none] length: 1052 10.1.2.2 > 10.1.1.1) ns3::UdpHeader (length: 1032 9 > 49153) Payload (size=1024)
r 5.00806 /NodeList/2/DeviceList/0/$ns3::PointToPointNetDevice/MacRx ns3::PppHeader (Point-to-Point Protocol: IP (0x0021)) ns3::Ipv4Header (tos 0x0 DSCP Default ECN Not-ECT ttl 63 id 7 protocol 17 offset (bytes) 0 flags [none] length: 1052 10.1.1.1 > 10.1.2.2) ns3::UdpHeader (length: 1032 49154 > 10) Payload (size=1024)
+ 5.00806 /NodeList/2/DeviceList/0/$ns3::PointToPointNetDevice/TxQueue/Enqueue ns3::PppHeader (Point-to-Point Protocol: IP (0x0021)) ns3::Ipv4Header (tos 0x0 DSCP Default ECN Not-ECT ttl 64 id 7 protocol 17 offset (bytes) 0 flags [none] length: 1052 10.1.2.2 > 10.1.1.1) ns3::UdpHeader (length: 1032 10 > 49154) Payload (size=1024)
- 5.00806 /NodeList/2/DeviceList/0/$ns3::PointToPointNetDevice/TxQueue/Dequeue ns3::PppHeader (Point-to-Point Protocol: IP (0x0021)) ns3::Ipv4Header (tos 0x0 DSCP Default ECN Not-ECT ttl 64 id 7 protocol 17 offset (bytes) 0 flags [none] length: 1052 10.1.2.2 > 10.1.1.1) ns3::UdpHeader (length: 1032 10 > 49154) Payload (size=1024)
r 5.00906 /NodeList/1/DeviceList/1/$ns3::PointToPointNetDevice/MacRx ns3::PppHeader (Point-to-Point Protocol: IP (0x0021)) ns3::Ipv4Header (tos 0x0 DSCP Default ECN Not-ECT ttl 64 id 6 protocol 17 offset (bytes) 0 flags [none] length: 1052 10.1.2.2 > 10.1.1.1) ns3::UdpHeader (length: 1032 9 > 49153) Payload (size=1024)
+ 5.00906 /NodeList/1/DeviceList/0/$ns3::PointToPointNetDevice/TxQueue/Enqueue ns3::PppHeader (Point-to-Point Protocol: IP (0x0021)) ns3::Ipv4Header (tos 0x0 DSCP Default ECN Not-ECT ttl 63 id 6 protocol 17 offset (bytes) 0 flags [none] length: 1052 10.1.2.2 > 10.1.1.1) ns3::UdpHeader (length: 1032 9 > 49153) Payload (size=1024)
- 5.00906 /NodeList/1/DeviceList/0/$ns3::PointToPointNetDevice/TxQueue/Dequeue ns3::PppHeader (Point-to-Point Protocol: IP (0x0021)) ns3::Ipv4Header (tos 0x0 DSCP Default ECN Not-ECT ttl 63 id 6 protocol 17 offset (bytes) 0 flags [none] length: 1052 10.1.2.2 > 10.1.1.1) ns3::UdpHeader (length: 1032 9 > 49153) Payload (size=1024)